<?xml version="1.0" ?> 
<!-- 
# vtk DataFile Version 3.0
-->
<VTKFile type="UnstructuredGrid" version="0.1" compressor="vtkZLibDataCompressor" byte_order="LittleEndian">
  <UnstructuredGrid>
    <FieldData>
      <DataArray type="Float64" Name="TIME" NumberOfTuples="1" format="ascii">
5.000000000000000e-01 
      </DataArray>
    </FieldData>

    <Piece NumberOfPoints="90" NumberOfCells="15" >
      <Points>
        <DataArray type="Float64" NumberOfComponents="3" format="ascii">
-4.500000000000000e+00 3.000000000000000e-01 0.000000000000000e+00
-4.399999999999999e+00 3.000000000000000e-01 0.000000000000000e+00
-4.300000000000000e+00 3.000000000000000e-01 0.000000000000000e+00
-4.200000000000001e+00 3.000000000000000e-01 0.000000000000000e+00
-4.100000000000001e+00 3.000000000000000e-01 0.000000000000000e+00
-4.000000000000000e+00 3.000000000000000e-01 0.000000000000000e+00
-4.000000000000000e+00 3.000000000000000e-01 0.000000000000000e+00
-3.871428571428000e+00 3.000000000000000e-01 0.000000000000000e+00
-3.742857142856000e+00 3.000000000000000e-01 0.000000000000000e+00
-3.614285714284000e+00 3.000000000000000e-01 0.000000000000000e+00
-3.485714285712000e+00 3.000000000000000e-01 0.000000000000000e+00
-3.357142857140000e+00 3.000000000000000e-01 0.000000000000000e+00
-3.357142857140000e+00 3.000000000000000e-01 0.000000000000000e+00
-3.285714285712000e+00 3.000000000000000e-01 0.000000000000000e+00
-3.214285714284001e+00 3.000000000000000e-01 0.000000000000000e+00
-3.142857142856000e+00 3.000000000000000e-01 0.000000000000000e+00
-3.071428571428000e+00 3.000000000000000e-01 0.000000000000000e+00
-3.000000000000000e+00 3.000000000000000e-01 0.000000000000000e+00
-3.000000000000000e+00 3.000000000000000e-01 0.000000000000000e+00
-2.842857142858000e+00 3.000000000000000e-01 0.000000000000000e+00
-2.685714285716000e+00 3.000000000000000e-01 0.000000000000000e+00
-2.528571428574000e+00 3.000000000000000e-01 0.000000000000000e+00
-2.371428571432000e+00 3.000000000000000e-01 0.000000000000000e+00
-2.214285714290000e+00 3.000000000000000e-01 0.000000000000000e+00
-2.214285714290000e+00 3.000000000000000e-01 0.000000000000000e+00
-2.171428571432000e+00 2.999999999999999e-01 0.000000000000000e+00
-2.128571428574000e+00 3.000000000000000e-01 0.000000000000000e+00
-2.085714285716000e+00 3.000000000000000e-01 0.000000000000000e+00
-2.042857142858000e+00 3.000000000000000e-01 0.000000000000000e+00
-2.000000000000000e+00 3.000000000000000e-01 0.000000000000000e+00
-2.000000000000000e+00 3.000000000000000e-01 0.000000000000000e+00
-1.814285714286000e+00 3.000000000000000e-01 0.000000000000000e+00
-1.628571428572000e+00 3.000000000000000e-01 0.000000000000000e+00
-1.442857142858000e+00 3.000000000000000e-01 0.000000000000000e+00
-1.257142857144000e+00 3.000000000000000e-01 0.000000000000000e+00
-1.071428571430000e+00 3.000000000000000e-01 0.000000000000000e+00
-1.071428571430000e+00 3.000000000000000e-01 0.000000000000000e+00
-1.057142857144000e+00 3.000000000000000e-01 0.000000000000000e+00
-1.042857142858000e+00 3.000000000000000e-01 0.000000000000000e+00
-1.028571428572000e+00 3.000000000000000e-01 0.000000000000000e+00
-1.014285714286000e+00 3.000000000000000e-01 0.000000000000000e+00
-1.000000000000000e+00 3.000000000000000e-01 0.000000000000000e+00
-1.000000000000000e+00 3.000000000000000e-01 0.000000000000000e+00
-7.999999999999999e-01 3.000000000000000e-01 0.000000000000000e+00
-5.999999999999999e-01 3.000000000000000e-01 0.000000000000000e+00
-4.000000000000000e-01 3.000000000000000e-01 0.000000000000000e+00
-2.000000000000000e-01 3.000000000000000e-01 0.000000000000000e+00
-6.938893903907228e-17 3.000000000000000e-01 0.000000000000000e+00
2.775557561562891e-17 3.000000000000000e-01 0.000000000000000e+00
1.428571428572004e-02 3.000000000000000e-01 0.000000000000000e+00
2.857142857144009e-02 3.000000000000000e-01 0.000000000000000e+00
4.285714285715996e-02 3.000000000000000e-01 0.000000000000000e+00
5.714285714287998e-02 3.000000000000000e-01 0.000000000000000e+00
7.142857142860000e-02 3.000000000000000e-01 0.000000000000000e+00
7.142857142860000e-02 3.000000000000000e-01 0.000000000000000e+00
2.571428571428799e-01 3.000000000000000e-01 0.000000000000000e+00
4.428571428571599e-01 3.000000000000000e-01 0.000000000000000e+00
6.285714285714400e-01 3.000000000000000e-01 0.000000000000000e+00
8.142857142857198e-01 3.000000000000000e-01 0.000000000000000e+00
9.999999999999999e-01 3.000000000000000e-01 0.000000000000000e+00
9.999999999999999e-01 3.000000000000000e-01 0.000000000000000e+00
1.042857142858000e+00 3.000000000000000e-01 0.000000000000000e+00
1.085714285716000e+00 3.000000000000000e-01 0.000000000000000e+00
1.128571428574000e+00 3.000000000000000e-01 0.000000000000000e+00
1.171428571432000e+00 3.000000000000000e-01 0.000000000000000e+00
1.214285714290000e+00 3.000000000000000e-01 0.000000000000000e+00
1.214285714290000e+00 3.000000000000000e-01 0.000000000000000e+00
1.371428571432000e+00 3.000000000000000e-01 0.000000000000000e+00
1.528571428574000e+00 3.000000000000000e-01 0.000000000000000e+00
1.685714285716000e+00 3.000000000000000e-01 0.000000000000000e+00
1.842857142858000e+00 3.000000000000000e-01 0.000000000000000e+00
2.000000000000000e+00 2.999999999999999e-01 0.000000000000000e+00
2.000000000000000e+00 2.999999999999999e-01 0.000000000000000e+00
2.071428571428001e+00 3.000000000000000e-01 0.000000000000000e+00
2.142857142856001e+00 3.000000000000000e-01 0.000000000000000e+00
2.214285714284000e+00 3.000000000000000e-01 0.000000000000000e+00
2.285714285712000e+00 2.999999999999999e-01 0.000000000000000e+00
2.357142857140000e+00 3.000000000000000e-01 0.000000000000000e+00
2.357142857140000e+00 3.000000000000000e-01 0.000000000000000e+00
2.485714285712000e+00 3.000000000000000e-01 0.000000000000000e+00
2.614285714284000e+00 3.000000000000000e-01 0.000000000000000e+00
2.742857142856000e+00 3.000000000000000e-01 0.000000000000000e+00
2.871428571428000e+00 3.000000000000000e-01 0.000000000000000e+00
3.000000000000000e+00 3.000000000000000e-01 0.000000000000000e+00
3.000000000000000e+00 3.000000000000000e-01 0.000000000000000e+00
3.100000000000000e+00 3.000000000000000e-01 0.000000000000000e+00
3.200000000000000e+00 3.000000000000000e-01 0.000000000000000e+00
3.300000000000001e+00 3.000000000000000e-01 0.000000000000000e+00
3.399999999999999e+00 2.999999999999999e-01 0.000000000000000e+00
3.500000000000000e+00 3.000000000000000e-01 0.000000000000000e+00
        </DataArray>
      </Points>

      <Cells>
        <DataArray type="Int32" Name="connectivity" format="ascii">
0 1 2 3 4 5 6 7 8 9 10 11 12 13 14 15 16 17 18 19 20 21 22 23 24 25 26 27 28 29 30 31 32 33 34 35 36 37 38 39 40 41 42 43 44 45 46 47 48 49 50 51 52 53 54 55 56 57 58 59 60 61 62 63 64 65 66 67 68 69 70 71 72 73 74 75 76 77 78 79 80 81 82 83 84 85 86 87 88 89 
        </DataArray>
        <DataArray type="Int32" Name="offsets" format="ascii">
6 12 18 24 30 36 42 48 54 60 66 72 78 84 90 
        </DataArray>
        <DataArray type="UInt8" Name="types" format="ascii">
4 4 4 4 4 4 4 4 4 4 4 4 4 4 4 
        </DataArray>
      </Cells>

  <PointData>
        <DataArray type="Float64" Name="displacement" NumberOfComponents="3" format="ascii">
-2.368657734139745e-04 -2.495896765569716e-05 7.960473647755718e-03
-2.949679134163219e-04 -3.535795287634702e-05 1.099499707950865e-02
-3.681038084790700e-04 -4.819174113368518e-05 1.450331060849337e-02
-4.573522565749499e-04 -6.358675890955068e-05 1.847052398941994e-02
-5.637920556749165e-04 -8.166943268556048e-05 2.288174697699840e-02
-6.885020037481482e-04 -1.025661889432206e-04 2.772208932593882e-02
-6.885020037481482e-04 -1.025661889432206e-04 2.772208932593882e-02
-8.774254400818471e-04 -1.337718871891047e-04 3.455196605660939e-02
-1.100626709176655e-03 -1.701071291299594e-04 4.203494167940357e-02
-1.360398649868699e-03 -2.118406171129350e-04 5.013936899660554e-02
-1.659034100990109e-03 -2.592410534854039e-04 5.883360081049950e-02
-1.998825901378343e-03 -3.125771405945721e-04 6.808598992336969e-02
-1.998825901378343e-03 -3.125771405945721e-04 6.808598992336969e-02
-2.206132336642685e-03 -3.446706753977291e-04 7.346687341399911e-02
-2.426791650214977e-03 -3.782650708560875e-04 7.902786984205289e-02
-2.660804278147300e-03 -4.133201467533820e-04 8.476469596900342e-02
-2.908170656489961e-03 -4.497957228729588e-04 9.067306855632315e-02
-3.168891221292380e-03 -4.876516189983859e-04 9.674870436548458e-02
-3.168891221293269e-03 -4.876516189983859e-04 9.674870436548456e-02
-3.789485349055877e-03 -5.755953087886456e-04 1.106827618870949e-01
-4.474720492837037e-03 -6.695974362146973e-04 1.253600346041077e-01
-5.224601295697795e-03 -7.692301623314357e-04 1.407349145926812e-01
-6.039132400705860e-03 -8.740656481939224e-04 1.567617939289735e-01
-6.918318450924943e-03 -9.836760548571633e-04 1.733950646891430e-01
-6.918318450924943e-03 -9.836760548571633e-04 1.733950646891430e-01
-7.169212391126223e-03 -1.014394428133170e-03 1.780309254393943e-01
-7.424684978920570e-03 -1.045534944982440e-03 1.827084001078907e-01
-7.684707422801029e-03 -1.077093636096760e-03 1.874269977286381e-01
-7.949250931260643e-03 -1.109066532167857e-03 1.921862273356425e-01
-8.218286712795564e-03 -1.141449663887850e-03 1.969855979629103e-01
-8.218286712795564e-03 -1.141449663887906e-03 1.969855979629103e-01
-9.435316773262814e-03 -1.286420237317898e-03 2.182347453245875e-01
-1.073381832322196e-02 -1.438696605737755e-03 2.401884825094223e-01
-1.211144858716562e-02 -1.597955785074490e-03 2.628068594326563e-01
-1.356586478958732e-02 -1.763874791255171e-03 2.860499260095314e-01
-1.509472415498037e-02 -1.936130640206757e-03 3.098777321552894e-01
-1.509472415498037e-02 -1.936130640206757e-03 3.098777321552894e-01
-1.521531036052992e-02 -1.949632467584672e-03 3.117334465224856e-01
-1.533625294459906e-02 -1.963166145746154e-03 3.135918359503584e-01
-1.545755094025769e-02 -1.976731647728991e-03 3.154528912904414e-01
-1.557920338057750e-02 -1.990328946570752e-03 3.173166033942680e-01
-1.570120929862995e-02 -2.003958015309226e-03 3.191829631133720e-01
-1.570120929862995e-02 -2.003958015309226e-03 3.191829631133720e-01
-1.744586583292795e-02 -2.198085717907361e-03 3.455848756432140e-01
-1.925696123131815e-02 -2.398361051093978e-03 3.724788242761063e-01
-2.113184224049941e-02 -2.604710030318536e-03 3.998397056201889e-01
-2.306785560717162e-02 -2.817058671030825e-03 4.276424162836018e-01
-2.506234807803398e-02 -3.035332988680417e-03 4.558618528744848e-01
-2.506234807803397e-02 -3.035332988680361e-03 4.558618528744848e-01
-2.520697944442059e-02 -3.051148804444903e-03 4.578928097980598e-01
-2.535189466964800e-02 -3.066994448820526e-03 4.599257556473297e-01
-2.549709278678716e-02 -3.082869894845019e-03 4.619606812738279e-01
-2.564257282890902e-02 -3.098775115555952e-03 4.639975775290882e-01
-2.578833382908457e-02 -3.114710083991057e-03 4.660364352646442e-01
-2.578833382908457e-02 -3.114710083991057e-03 4.660364352646442e-01
-2.770149342010128e-02 -3.323929199744502e-03 4.926654191053564e-01
-2.964638021438820e-02 -3.536852433254578e-03 5.195084686103879e-01
-3.162125136261307e-02 -3.753422112978133e-03 5.465533123764266e-01
-3.362436401544355e-02 -3.973580567372015e-03 5.737876790001613e-01
-3.565397532354742e-02 -4.197270124893238e-03 6.011992970782798e-01
-3.565397532354719e-02 -4.197270124893238e-03 6.011992970782799e-01
-3.612592624417976e-02 -4.249386160415813e-03 6.075489310582914e-01
-3.659917410261992e-02 -4.301686462831356e-03 6.139072001489480e-01
-3.707369748014555e-02 -4.354170323386197e-03 6.202739535410141e-01
-3.754947495803562e-02 -4.406837033326672e-03 6.266490404252552e-01
-3.802648511756690e-02 -4.459685883899278e-03 6.330323099924360e-01
-3.802648511756690e-02 -4.459685883899278e-03 6.330323099924360e-01
-3.978270543769913e-02 -4.654642288974942e-03 6.564845362885069e-01
-4.154825920038085e-02 -4.851205158207084e-03 6.799971731135486e-01
-4.332229857747394e-02 -5.049251503600583e-03 7.035645743989788e-01
-4.510397574083669e-02 -5.248658337160150e-03 7.271810940762143e-01
-4.689244286233007e-02 -5.449302670890610e-03 7.508410860766720e-01
-4.689244286233052e-02 -5.449302670890610e-03 7.508410860766720e-01
-4.770739776236654e-02 -5.540880466761156e-03 7.616084718000143e-01
-4.852350075198153e-02 -5.632676983404694e-03 7.723831426183625e-01
-4.934067220794658e-02 -5.724680670483651e-03 7.831645682848548e-01
-5.015883250703279e-02 -5.816879977660283e-03 7.939522185526299e-01
-5.097790202601304e-02 -5.909263354597183e-03 8.047455631748260e-01
-5.097790202601304e-02 -5.909263354597183e-03 8.047455631748260e-01
-5.245310968994321e-02 -6.076007673261663e-03 8.241781610830504e-01
-5.392851375278873e-02 -6.243284782452674e-03 8.436102192895386e-01
-5.540407279557114e-02 -6.411007345176245e-03 8.630416157901840e-01
-5.687974539931639e-02 -6.579088024438295e-03 8.824722285808795e-01
-5.835549014504826e-02 -6.747439483245077e-03 9.019019356575184e-01
-5.835549014504737e-02 -6.747439483245077e-03 9.019019356575184e-01
-5.950331497568051e-02 -6.878510803916715e-03 9.170132257772318e-01
-6.065113890389728e-02 -7.009652003293398e-03 9.321238367870427e-01
-6.179894244175754e-02 -7.140821988660451e-03 9.472337112830989e-01
-6.294670610131936e-02 -7.271979667303363e-03 9.623427918615469e-01
-6.409441039464348e-02 -7.403083946507516e-03 9.774510211185350e-01
        </DataArray>
        <DataArray type="Float64" Name="lambda" NumberOfComponents="3" format="ascii">
-1.790801153283126e-03 1.082376168420732e-05 -2.681684411838972e-03
-5.279356917275777e-04 3.378577640928764e-06 -5.099693702506449e-04
1.994572378400250e-04 -1.114969878905780e-06 7.096225819814545e-04
5.020500868100369e-04 -3.226013420506129e-06 1.175704727444793e-03
4.905153065728156e-04 -3.523685529082109e-06 1.086890348726841e-03
2.755253485187177e-04 -2.577118749843538e-06 6.417927284150679e-04
2.755253485187177e-04 -2.577118749843538e-06 6.417927284150679e-04
-1.217364239439333e-04 -4.477566969269049e-07 -1.343596690591674e-04
-4.371544320324117e-04 1.587983404959973e-06 -7.490245555981291e-04
-4.355093840130565e-04 2.320487487410418e-06 -7.800763247639297e-04
1.184180118477933e-04 5.401414820177486e-07 1.946106298813184e-04
1.459847047283799e-03 -4.962668679624713e-06 2.597161914775504e-03
-2.257819941063855e-04 -1.655666298605002e-06 6.225782998457522e-04
-5.120586707721445e-05 -9.929249045483172e-07 4.738289410007054e-04
6.591729813051570e-05 -4.755176303485338e-07 3.337177426128199e-04
1.338336707384185e-04 -8.872492173580752e-08 2.049902317227560e-04
1.607894199681076e-04 1.821727755597046e-07 9.039193537117522e-05
1.550307150411968e-04 3.518950158078467e-07 -7.331619401261287e-06
1.550307150411968e-04 3.518950158078465e-07 -7.331619401261206e-06
6.784380749457494e-05 4.416842989886321e-07 -1.493943922858713e-04
-4.996438926557099e-05 2.697608265905463e-07 -1.672606931209561e-04
-1.105886653668282e-04 -7.141587519920770e-09 -3.169614997733217e-05
-2.622381093678394e-05 -2.322891294762798e-07 2.865336090741840e-04
2.909353838969746e-04 -2.489479854120404e-07 8.166629559627763e-04
8.003275403009832e-05 1.138619416495107e-06 7.695233423753614e-04
5.462149220592881e-05 7.921025364822427e-07 6.221080634236604e-04
3.380016748639345e-05 4.986182271116042e-07 4.880893359475764e-04
1.720164756010272e-05 2.545620275995323e-07 3.672035500334368e-04
4.458800115667100e-06 5.632947716236842e-08 2.591870957675683e-04
-4.795507158302895e-06 -9.968388498354631e-08 1.637763632362981e-04
-4.795507158302873e-06 -9.968388498354592e-08 1.637763632362984e-04
-1.354170099696787e-05 -3.758066551205428e-07 -1.104348066898837e-04
6.451516142616961e-06 -2.201269621346363e-07 -1.743385798517052e-04
2.531045210968648e-05 7.405888504133478e-08 -4.938499255664459e-05
1.316141475347560e-05 2.134545774745309e-07 2.429759188878194e-04
-5.986928807678079e-05 -9.523619376788678e-08 6.812941181742079e-04
1.544108617069605e-04 -8.603844714286777e-07 8.569907856759240e-04
1.342532062953400e-04 -7.315907671565281e-07 7.955856897870262e-04
1.153274650402253e-04 -6.111793579371441e-07 7.363062080186316e-04
9.760225139607437e-05 -4.989289963965414e-07 6.791276281575402e-04
8.104617881734491e-05 -3.946184351607348e-07 6.240252379905539e-04
6.562786075849492e-05 -2.980264268557402e-07 5.709743253044727e-04
6.562786075849492e-05 -2.980264268557402e-07 5.709743253044727e-04
-4.834083298099465e-05 3.677121611078009e-07 2.982784381013166e-05
-3.158608472158193e-05 1.710816541699864e-07 -1.818829582443485e-04
2.976742457421505e-05 -2.808151534912863e-07 -1.319683938736167e-04
4.959501394387836e-05 -3.808754676981206e-07 1.117612239076781e-04
-5.822799757511004e-05 4.780035057273811e-07 4.814955820848866e-04
-5.822799757511011e-05 4.780035057273816e-07 4.814955820848868e-04
-7.308975512643286e-05 5.920865438362814e-07 5.109351536048483e-04
-8.907358943682322e-05 7.143808399406405e-07 5.406469232553941e-04
-1.062108870518214e-04 8.451076414144294e-07 5.706061788233266e-04
-1.245330345169678e-04 9.844881956316220e-07 6.007882080954478e-04
-1.440714183778027e-04 1.132743749966188e-06 6.311682988585603e-04
9.008035459926452e-05 -1.248307205507232e-06 8.479187400158238e-04
-1.498879592238405e-05 1.988511064307211e-07 2.237076118212912e-04
-3.401890101662687e-05 4.530255517801690e-07 -1.089169106096151e-04
-7.722814761121929e-06 7.617566625154838e-08 -1.939641166566212e-04
2.318660876647277e-05 -3.697390144447037e-07 -7.544329569945307e-05
1.799651548849929e-05 -3.227589545981511e-07 2.026362628821633e-04
1.799651548849927e-05 -3.227589545981509e-07 2.026362628821635e-04
7.373024964215536e-06 -1.825784076323405e-07 2.848203808645736e-04
-7.841405229554048e-06 2.068400450946815e-08 3.726171682288002e-04
-2.814711512929684e-05 2.939344754845771e-07 4.654857734439713e-04
-5.404444477150020e-05 6.440791989502882e-07 5.628853449792164e-04
-8.603373419265171e-05 1.078024368563906e-06 6.642750313036645e-04
1.241652170274622e-05 -7.070836534236668e-07 8.023157146482472e-04
-1.577486796358983e-05 -2.144611670897307e-08 2.997259802091382e-04
-1.533726797280810e-05 2.276495480787061e-07 -1.918614503310146e-05
-9.608799911316360e-08 1.908213547103611e-07 -1.705968175762086e-04
1.612326228329045e-05 1.868731695698229e-08 -1.706821939179203e-04
1.949537320019816e-05 -1.381345514104396e-07 -3.561843055597379e-05
1.949537320019813e-05 -1.381345514104399e-07 -3.561843055597317e-05
1.304172504184347e-05 -1.636171891827163e-07 6.607637182120014e-05
-2.212053818324890e-07 -1.406715383831232e-07 1.908331958507100e-04
-2.159182243541453e-05 -5.515240613320105e-08 3.371328683077616e-04
-5.236853048348750e-05 1.070854004455107e-07 5.034562159675608e-04
-9.384973389063620e-05 3.601870742314712e-07 6.882840656053125e-04
-5.560264974060752e-05 2.544463317930844e-07 1.383145705659989e-03
-1.815951531083098e-05 9.661329214261039e-09 2.989155152871267e-04
1.715067320182841e-06 -9.055914047359247e-08 -2.179787095264194e-04
8.129875520701436e-06 -8.725073939567427e-08 -3.183878245922943e-04
5.193686658992311e-06 -2.144912967718233e-08 -1.531626857221430e-04
-2.984721896677051e-06 6.581002655668536e-08 1.268458512723903e-04
-2.984721896677077e-06 6.581002655668560e-08 1.268458512723911e-04
-1.033973827290862e-05 1.222442780927401e-07 3.274200722389432e-04
-1.644720653985222e-05 1.475273895840618e-07 4.351992419261456e-04
-1.937391594675760e-05 1.223517724041006e-07 3.792068945689724e-04
-1.718665574287449e-05 2.740983792630607e-08 8.846656440239753e-05
-7.952215177452578e-06 -1.566060024758724e-07 -5.079982143386057e-04
        </DataArray>
        <DataArray type="Int32" Name="uid_0_pair_beam_id" format="ascii">
10
10
10
10
10
10
10
10
10
10
10
10
11
11
11
11
11
11
11
11
11
11
11
11
12
12
12
12
12
12
12
12
12
12
12
12
13
13
13
13
13
13
13
13
13
13
13
13
13
13
13
13
13
13
14
14
14
14
14
14
14
14
14
14
14
14
15
15
15
15
15
15
15
15
15
15
15
15
16
16
16
16
16
16
16
16
16
16
16
16
        </DataArray>
        <DataArray type="Int32" Name="uid_1_pair_solid_id" format="ascii">
0
0
0
0
0
0
1
1
1
1
1
1
1
1
1
1
1
1
2
2
2
2
2
2
2
2
2
2
2
2
3
3
3
3
3
3
3
3
3
3
3
3
4
4
4
4
4
4
5
5
5
5
5
5
5
5
5
5
5
5
6
6
6
6
6
6
6
6
6
6
6
6
7
7
7
7
7
7
7
7
7
7
7
7
8
8
8
8
8
8
        </DataArray>
  </PointData>
  <CellData>
        <DataArray type="Int32" Name="uid_0_pair_beam_id" format="ascii">
10
10
11
11
12
12
13
13
13
14
14
15
15
16
16
        </DataArray>
        <DataArray type="Int32" Name="uid_1_pair_solid_id" format="ascii">
0
1
1
2
2
3
3
4
5
5
6
6
7
7
8
        </DataArray>
      </CellData>

    </Piece>
  </UnstructuredGrid>
</VTKFile>
