<?xml version="1.0" ?> 
<!-- 
# vtk DataFile Version 3.0
-->
<VTKFile type="UnstructuredGrid" version="0.1" compressor="vtkZLibDataCompressor" byte_order="LittleEndian">
  <UnstructuredGrid>
    <FieldData>
      <DataArray type="Float64" Name="TIME" NumberOfTuples="1" format="ascii">
1.000000000000000e+00 
      </DataArray>
    </FieldData>

    <Piece NumberOfPoints="90" NumberOfCells="15" >
      <Points>
        <DataArray type="Float64" NumberOfComponents="3" format="ascii">
-4.500000000000000e+00 3.000000000000000e-01 0.000000000000000e+00
-4.399999999999999e+00 3.000000000000000e-01 0.000000000000000e+00
-4.300000000000000e+00 3.000000000000000e-01 0.000000000000000e+00
-4.200000000000001e+00 3.000000000000000e-01 0.000000000000000e+00
-4.100000000000001e+00 3.000000000000000e-01 0.000000000000000e+00
-4.000000000000000e+00 3.000000000000000e-01 0.000000000000000e+00
-4.000000000000000e+00 3.000000000000000e-01 0.000000000000000e+00
-3.871428571428000e+00 3.000000000000000e-01 0.000000000000000e+00
-3.742857142856000e+00 3.000000000000000e-01 0.000000000000000e+00
-3.614285714284000e+00 3.000000000000000e-01 0.000000000000000e+00
-3.485714285712000e+00 3.000000000000000e-01 0.000000000000000e+00
-3.357142857140000e+00 3.000000000000000e-01 0.000000000000000e+00
-3.000000000000000e+00 3.000000000000000e-01 0.000000000000000e+00
-2.842857142858000e+00 3.000000000000000e-01 0.000000000000000e+00
-2.685714285716000e+00 3.000000000000000e-01 0.000000000000000e+00
-2.528571428574000e+00 3.000000000000000e-01 0.000000000000000e+00
-2.371428571432000e+00 3.000000000000000e-01 0.000000000000000e+00
-2.214285714290000e+00 3.000000000000000e-01 0.000000000000000e+00
-3.357142857140000e+00 3.000000000000000e-01 0.000000000000000e+00
-3.285714285712000e+00 3.000000000000000e-01 0.000000000000000e+00
-3.214285714284001e+00 3.000000000000000e-01 0.000000000000000e+00
-3.142857142856000e+00 3.000000000000000e-01 0.000000000000000e+00
-3.071428571428000e+00 3.000000000000000e-01 0.000000000000000e+00
-3.000000000000000e+00 3.000000000000000e-01 0.000000000000000e+00
-2.214285714290000e+00 3.000000000000000e-01 0.000000000000000e+00
-2.171428571432000e+00 2.999999999999999e-01 0.000000000000000e+00
-2.128571428574000e+00 3.000000000000000e-01 0.000000000000000e+00
-2.085714285716000e+00 3.000000000000000e-01 0.000000000000000e+00
-2.042857142858000e+00 3.000000000000000e-01 0.000000000000000e+00
-2.000000000000000e+00 3.000000000000000e-01 0.000000000000000e+00
-2.000000000000000e+00 3.000000000000000e-01 0.000000000000000e+00
-1.814285714286000e+00 3.000000000000000e-01 0.000000000000000e+00
-1.628571428572000e+00 3.000000000000000e-01 0.000000000000000e+00
-1.442857142858000e+00 3.000000000000000e-01 0.000000000000000e+00
-1.257142857144000e+00 3.000000000000000e-01 0.000000000000000e+00
-1.071428571430000e+00 3.000000000000000e-01 0.000000000000000e+00
-1.071428571430000e+00 3.000000000000000e-01 0.000000000000000e+00
-1.057142857144000e+00 3.000000000000000e-01 0.000000000000000e+00
-1.042857142858000e+00 3.000000000000000e-01 0.000000000000000e+00
-1.028571428572000e+00 3.000000000000000e-01 0.000000000000000e+00
-1.014285714286000e+00 3.000000000000000e-01 0.000000000000000e+00
-1.000000000000000e+00 3.000000000000000e-01 0.000000000000000e+00
-1.000000000000000e+00 3.000000000000000e-01 0.000000000000000e+00
-7.999999999999999e-01 3.000000000000000e-01 0.000000000000000e+00
-5.999999999999999e-01 3.000000000000000e-01 0.000000000000000e+00
-4.000000000000000e-01 3.000000000000000e-01 0.000000000000000e+00
-2.000000000000000e-01 3.000000000000000e-01 0.000000000000000e+00
-6.938893903907228e-17 3.000000000000000e-01 0.000000000000000e+00
2.775557561562891e-17 3.000000000000000e-01 0.000000000000000e+00
1.428571428572004e-02 3.000000000000000e-01 0.000000000000000e+00
2.857142857144009e-02 3.000000000000000e-01 0.000000000000000e+00
4.285714285715996e-02 3.000000000000000e-01 0.000000000000000e+00
5.714285714287998e-02 3.000000000000000e-01 0.000000000000000e+00
7.142857142860000e-02 3.000000000000000e-01 0.000000000000000e+00
7.142857142860000e-02 3.000000000000000e-01 0.000000000000000e+00
2.571428571428799e-01 3.000000000000000e-01 0.000000000000000e+00
4.428571428571599e-01 3.000000000000000e-01 0.000000000000000e+00
6.285714285714400e-01 3.000000000000000e-01 0.000000000000000e+00
8.142857142857198e-01 3.000000000000000e-01 0.000000000000000e+00
9.999999999999999e-01 3.000000000000000e-01 0.000000000000000e+00
9.999999999999999e-01 3.000000000000000e-01 0.000000000000000e+00
1.042857142858000e+00 3.000000000000000e-01 0.000000000000000e+00
1.085714285716000e+00 3.000000000000000e-01 0.000000000000000e+00
1.128571428574000e+00 3.000000000000000e-01 0.000000000000000e+00
1.171428571432000e+00 3.000000000000000e-01 0.000000000000000e+00
1.214285714290000e+00 3.000000000000000e-01 0.000000000000000e+00
1.214285714290000e+00 3.000000000000000e-01 0.000000000000000e+00
1.371428571432000e+00 3.000000000000000e-01 0.000000000000000e+00
1.528571428574000e+00 3.000000000000000e-01 0.000000000000000e+00
1.685714285716000e+00 3.000000000000000e-01 0.000000000000000e+00
1.842857142858000e+00 3.000000000000000e-01 0.000000000000000e+00
2.000000000000000e+00 2.999999999999999e-01 0.000000000000000e+00
2.000000000000000e+00 2.999999999999999e-01 0.000000000000000e+00
2.071428571428001e+00 3.000000000000000e-01 0.000000000000000e+00
2.142857142856001e+00 3.000000000000000e-01 0.000000000000000e+00
2.214285714284000e+00 3.000000000000000e-01 0.000000000000000e+00
2.285714285712000e+00 2.999999999999999e-01 0.000000000000000e+00
2.357142857140000e+00 3.000000000000000e-01 0.000000000000000e+00
2.357142857140000e+00 3.000000000000000e-01 0.000000000000000e+00
2.485714285712000e+00 3.000000000000000e-01 0.000000000000000e+00
2.614285714284000e+00 3.000000000000000e-01 0.000000000000000e+00
2.742857142856000e+00 3.000000000000000e-01 0.000000000000000e+00
2.871428571428000e+00 3.000000000000000e-01 0.000000000000000e+00
3.000000000000000e+00 3.000000000000000e-01 0.000000000000000e+00
3.000000000000000e+00 3.000000000000000e-01 0.000000000000000e+00
3.100000000000000e+00 3.000000000000000e-01 0.000000000000000e+00
3.200000000000000e+00 3.000000000000000e-01 0.000000000000000e+00
3.300000000000001e+00 3.000000000000000e-01 0.000000000000000e+00
3.399999999999999e+00 2.999999999999999e-01 0.000000000000000e+00
3.500000000000000e+00 3.000000000000000e-01 0.000000000000000e+00
        </DataArray>
      </Points>

      <Cells>
        <DataArray type="Int32" Name="connectivity" format="ascii">
0 1 2 3 4 5 6 7 8 9 10 11 12 13 14 15 16 17 18 19 20 21 22 23 24 25 26 27 28 29 30 31 32 33 34 35 36 37 38 39 40 41 42 43 44 45 46 47 48 49 50 51 52 53 54 55 56 57 58 59 60 61 62 63 64 65 66 67 68 69 70 71 72 73 74 75 76 77 78 79 80 81 82 83 84 85 86 87 88 89 
        </DataArray>
        <DataArray type="Int32" Name="offsets" format="ascii">
6 12 18 24 30 36 42 48 54 60 66 72 78 84 90 
        </DataArray>
        <DataArray type="UInt8" Name="types" format="ascii">
4 4 4 4 4 4 4 4 4 4 4 4 4 4 4 
        </DataArray>
      </Cells>

  <PointData>
        <DataArray type="Float64" Name="displacement" NumberOfComponents="3" format="ascii">
-3.386813810770661e-04 -3.128295540421600e-04 1.721231045544586e-02
-6.142745952608664e-04 -4.169141953221933e-04 2.202717054601005e-02
-9.307306683412619e-04 -5.276223355787923e-04 2.814456662037297e-02
-1.294203947292516e-03 -6.461668794370823e-04 3.547869224122110e-02
-1.710848779090668e-03 -7.737607315223549e-04 4.394374097124092e-02
-2.186819510708204e-03 -9.116167964593469e-04 5.345390637311893e-02
-2.186819510708204e-03 -9.116167964593469e-04 5.345390637311893e-02
-2.895859002493228e-03 -1.105891441555262e-03 6.707885270393393e-02
-3.726221581379363e-03 -1.321713022747806e-03 8.210722763588384e-02
-4.690987477522945e-03 -1.561659404385796e-03 9.835666121910742e-02
-5.803236921081645e-03 -1.828308450818328e-03 1.156447835037435e-01
-7.076050142212686e-03 -2.124238026394054e-03 1.337892245399309e-01
-1.134981185538741e-02 -3.099083865703622e-03 1.882472628380311e-01
-1.356372424417529e-02 -3.577313242999924e-03 2.141655888493187e-01
-1.599316259909278e-02 -4.069512561486854e-03 2.413060292020132e-01
-1.864637449411255e-02 -4.564338155163827e-03 2.696870489714005e-01
-2.153160750320637e-02 -5.050446358030314e-03 2.993271132327666e-01
-2.465710920034736e-02 -5.516493504085895e-03 3.302446870613972e-01
-7.076050142212686e-03 -2.124238026394054e-03 1.337892245399309e-01
-7.849797649981838e-03 -2.302355027873293e-03 1.441938612830228e-01
-8.663273009633432e-03 -2.489963445564181e-03 1.548402493488336e-01
-9.517250786718723e-03 -2.685997946446417e-03 1.657301228729084e-01
-1.041250554678674e-02 -2.889393197499646e-03 1.768652159907925e-01
-1.134981185538697e-02 -3.099083865703622e-03 1.882472628380312e-01
-2.465710920034736e-02 -5.516493504085895e-03 3.302446870613972e-01
-2.555249427335093e-02 -5.638727945014910e-03 3.388982148963916e-01
-2.646675541663468e-02 -5.758939610461533e-03 3.476423753541770e-01
-2.739982125234430e-02 -5.877401792683590e-03 3.564763841133608e-01
-2.835162040262507e-02 -5.994387783938848e-03 3.653994568525504e-01
-2.932208148962623e-02 -6.110170876485244e-03 3.744108092503540e-01
-2.932208148962578e-02 -6.110170876485299e-03 3.744108092503539e-01
-3.374132064592095e-02 -6.604664429481655e-03 4.144609899040436e-01
-3.850384114297833e-02 -7.103939931353165e-03 4.560903180344142e-01
-4.360383493843067e-02 -7.630235274335095e-03 4.992349731192838e-01
-4.903549398991158e-02 -8.205788350662491e-03 5.438311346364701e-01
-5.479301025505356e-02 -8.852837052570783e-03 5.898149820637912e-01
-5.479301025505356e-02 -8.852837052570783e-03 5.898149820637912e-01
-5.524909626266172e-02 -8.906182893570869e-03 5.934074602379251e-01
-5.570680702876940e-02 -8.960030263258811e-03 5.970069403803844e-01
-5.616613140475835e-02 -9.014372965233275e-03 6.006133563541765e-01
-5.662705824200920e-02 -9.069204803093034e-03 6.042266420223100e-01
-5.708957639190437e-02 -9.124519580436863e-03 6.078467312477931e-01
-5.708957639190437e-02 -9.124519580436863e-03 6.078467312477931e-01
-6.372567509149440e-02 -9.946165124359030e-03 6.592053172098076e-01
-7.064089413062613e-02 -1.084424938747963e-02 7.117029576563800e-01
-7.780464169990359e-02 -1.180176944477079e-02 7.651581726820055e-01
-8.518632598993175e-02 -1.280172237120519e-02 8.193894823811784e-01
-9.275535519131488e-02 -1.382710524175507e-02 8.742154068483927e-01
-9.275535519131488e-02 -1.382710524175501e-02 8.742154068483929e-01
-9.330236066980716e-02 -1.390087072087148e-02 8.781495024945567e-01
-9.385015476040515e-02 -1.397467299858196e-02 8.820856398346602e-01
-9.439872631449023e-02 -1.404850587848533e-02 8.860237527317111e-01
-9.494806418344381e-02 -1.412236316418036e-02 8.899637750487180e-01
-9.549815721864741e-02 -1.419623865926567e-02 8.939056406486892e-01
-9.549815721864741e-02 -1.419623865926567e-02 8.939056406486892e-01
-1.027135594873065e-01 -1.515875389473148e-02 9.453325905600229e-01
-1.100389006963389e-01 -1.612465693316073e-02 9.970790207101481e-01
-1.174610916330894e-01 -1.709290261082252e-02 1.049111144358962e+00
-1.249670430849029e-01 -1.806244576398636e-02 1.101395174766363e+00
-1.325436658391245e-01 -1.903224122892155e-02 1.153897325192247e+00
-1.325436658391242e-01 -1.903224122892150e-02 1.153897325192247e+00
-1.343007712034772e-01 -1.925596564586241e-02 1.166040613853385e+00
-1.360607822099595e-01 -1.947963499539324e-02 1.178193303857987e+00
-1.378235379988810e-01 -1.970323643298927e-02 1.190354979984394e+00
-1.395888777105503e-01 -1.992675711412584e-02 1.202525227010948e+00
-1.413566404852753e-01 -2.015018419427828e-02 1.214703629715991e+00
-1.413566404852753e-01 -2.015018419427828e-02 1.214703629715991e+00
-1.478619007885329e-01 -2.096871447590748e-02 1.259426308603609e+00
-1.544061728174486e-01 -2.178712822077578e-02 1.304263572502477e+00
-1.609903208001611e-01 -2.260679575846475e-02 1.349225025770955e+00
-1.676152089648073e-01 -2.342908741855620e-02 1.394320272767403e+00
-1.742817015395259e-01 -2.425537353063173e-02 1.439558917850177e+00
-1.742817015395259e-01 -2.425537353063173e-02 1.439558917850177e+00
-1.773259127117692e-01 -2.463264924462649e-02 1.460171940391126e+00
-1.803789795594637e-01 -2.501116207817661e-02 1.480817476994496e+00
-1.834409832460318e-01 -2.539104072489429e-02 1.501496429647361e+00
-1.865120049348983e-01 -2.577241387839163e-02 1.522209700336795e+00
-1.895921257894884e-01 -2.615541023228091e-02 1.542958191049872e+00
-1.895921257894884e-01 -2.615541023228091e-02 1.542958191049872e+00
-1.951551625043964e-01 -2.684902362849217e-02 1.580390435992547e+00
-2.007347124582313e-01 -2.754762614097922e-02 1.617903762474062e+00
-2.063238018212603e-01 -2.825065585610886e-02 1.655461625467227e+00
-2.119154567637551e-01 -2.895755086024793e-02 1.693027479944854e+00
-2.175027034559842e-01 -2.966774923976323e-02 1.730564780879754e+00
-2.175027034559838e-01 -2.966774923976329e-02 1.730564780879754e+00
-2.218408278215143e-01 -3.022204986529264e-02 1.759717324499010e+00
-2.261687854917414e-01 -3.077774452134679e-02 1.788813292790888e+00
-2.304832952271636e-01 -3.133456882332181e-02 1.817835491044378e+00
-2.347810757882756e-01 -3.189225838661403e-02 1.846766724548472e+00
-2.390588459355771e-01 -3.245054882661963e-02 1.875589798592162e+00
        </DataArray>
        <DataArray type="Float64" Name="lambda" NumberOfComponents="3" format="ascii">
-5.594901432691525e-02 5.061907398883058e-04 -6.441473024469520e-02
-8.374787780483008e-03 4.196076904494633e-05 -4.724678304059562e-03
1.664418993919321e-02 -1.886075428226732e-04 2.486803996891744e-02
2.408185836127895e-02 -2.391927849300785e-04 3.127926078247385e-02
1.891215701493987e-02 -1.634735464927970e-04 2.142482034484787e-02
6.109025429341558e-03 -1.512841672635466e-05 2.220554864277580e-03
6.109025429341558e-03 -1.512841672635466e-05 2.220554864277580e-03
-1.356390532798809e-02 1.959300970060508e-04 -2.507930318722448e-02
-2.706170289530728e-02 3.242230969188803e-04 -4.170402151108183e-02
-2.381293311281990e-02 2.556640187595374e-04 -3.295492781612010e-02
6.753838179270202e-03 -1.238337017245743e-04 1.586665018883512e-02
7.521004514075913e-02 -9.283566287860513e-04 1.194593847949582e-01
2.587013387580960e-02 -2.002446278512514e-04 5.625653578709147e-02
-1.946564922305075e-02 2.535198211116659e-04 -3.585321020991089e-02
-6.140438367349872e-02 6.411480706822552e-04 -1.226741538081078e-01
-6.318914695902900e-02 6.211908885846741e-04 -1.286222449056773e-01
1.193698343686373e-02 -1.478009574569186e-04 2.188656659920277e-02
2.007309300306848e-01 -2.007276699718366e-03 4.044363308083543e-01
-5.315328389776035e-02 3.310892883253838e-04 -1.150853122223964e-01
-2.851513555273147e-03 -8.134510744945312e-05 -9.178757938007556e-03
2.674971090307346e-02 -3.086287142091149e-04 5.381027706099172e-02
3.910239196753345e-02 -3.828285146990217e-04 8.098021971874532e-02
3.765853212836079e-02 -3.360114916645934e-04 7.942949697939719e-02
2.587013387580957e-02 -2.002446278512511e-04 5.625653578709141e-02
2.473810577018403e-01 -1.977970257992449e-03 4.838634248095257e-01
1.605681147288471e-01 -1.357240225697068e-03 3.147564865952963e-01
8.887704260992020e-02 -8.330257912710264e-04 1.749992926072559e-01
3.115265831627907e-02 -3.986768088420653e-04 6.235591728301507e-02
-1.376022118085672e-02 -4.754313253792564e-05 -2.540956493981582e-02
-4.701677891026754e-02 2.270253835136509e-04 -9.053307962362625e-02
-4.701677891026746e-02 2.270253835136503e-04 -9.053307962362613e-02
-8.461401660600208e-02 6.943000425420794e-04 -1.656400049183599e-01
-1.902087554807223e-02 3.898509308712788e-04 -3.950489978887770e-02
5.576497337216653e-02 -1.451971188910382e-04 1.059341446443613e-01
4.574585926335852e-02 -3.697192741371590e-04 8.873903726089774e-02
-1.430758887658518e-01 2.574092977406300e-04 -2.730283130597274e-01
-3.532298769466498e-02 -1.764308823899830e-03 -5.398130892141855e-02
-3.052873105844084e-02 -1.513501785207818e-03 -4.679249383960340e-02
-2.602619672843189e-02 -1.278677249911943e-03 -4.003808841942871e-02
-2.180803956503345e-02 -1.059418090204474e-03 -3.370717660620883e-02
-1.786691442864083e-02 -8.553071782776834e-04 -2.778884234525814e-02
-1.419547617964932e-02 -6.659273863238417e-04 -2.227216958189097e-02
-1.419547617964932e-02 -6.659273863238417e-04 -2.227216958189097e-02
1.300081430758256e-02 6.722136761925632e-04 1.889978248268650e-02
8.933185302858377e-03 3.494109787793728e-04 1.343928179797123e-02
-6.243300119738468e-03 -4.897367742223683e-04 -8.700017580410663e-03
-1.237357888612462e-02 -7.006308784716175e-04 -1.756446159683307e-02
1.069741207778329e-02 8.613273703726679e-04 1.679960380433008e-02
1.069741207778330e-02 8.613273703726690e-04 1.679960380433011e-02
1.399525815048069e-02 1.070976320778378e-03 2.169974601515844e-02
1.755226738729469e-02 1.295927353366470e-03 2.698418266573950e-02
2.137578492782953e-02 1.536597595944650e-03 3.266382981075826e-02
2.547315591168952e-02 1.793404176320624e-03 3.874960350489977e-02
2.985172547847890e-02 2.066764222302095e-03 4.525241980284900e-02
3.936915035447053e-02 4.202975467784502e-03 1.017285173012686e-01
-1.075183160501543e-02 -1.095055991082869e-03 -3.051888864921514e-02
-1.535132390585849e-02 -1.582963078565569e-03 -3.876956882200500e-02
2.370631610465013e-03 2.847344564899208e-04 1.222244116877945e-02
1.921399310247872e-02 2.053516865237117e-03 5.770310570901860e-02
1.197871872870628e-02 1.268864398829541e-03 3.291838918459289e-02
1.197871872870627e-02 1.268864398829540e-03 3.291838918459285e-02
4.439698152811048e-03 4.659790718878193e-04 1.038239171818561e-02
-5.902238409305770e-03 -6.337668487063641e-04 -2.013978267755119e-02
-1.933220753923611e-02 -2.060538148216021e-03 -5.944392779491896e-02
-3.613532581857193e-02 -3.844499611904163e-03 -1.083258374262191e-01
-5.659670982890522e-02 -6.015816025033807e-03 -1.675813053637533e-01
-4.271026307767553e-02 -4.852949945574427e-03 -1.391539189434396e-01
-2.259968502149674e-03 -1.692846320703301e-04 -6.256414033866948e-03
1.353438411056024e-02 1.595888023194729e-03 4.517685924356152e-02
1.276351804195438e-02 1.420960030744573e-03 4.199235717580602e-02
3.518156573532922e-03 2.843234011030276e-04 1.103653604982673e-02
-6.110977013203928e-03 -8.356298552060794e-04 -2.084414784741608e-02
-6.110977013203951e-03 -8.356298552060820e-04 -2.084414784741615e-02
-8.426397877734523e-03 -1.074555408933955e-03 -2.837985717413929e-02
-8.389638441705496e-03 -1.016001825266169e-03 -2.803859786628340e-02
-5.240863686198915e-03 -5.680840543796234e-04 -1.729910242884891e-02
1.779761407703183e-03 3.610829535487800e-04 6.359896633163709e-03
1.343207185891875e-02 1.863384248342140e-03 4.545966681475404e-02
-1.338640002875608e-02 -7.354703259350708e-04 -3.352272682762302e-02
-9.248528201917243e-04 -1.084775910517116e-04 -4.106207514843550e-03
4.526768187630106e-03 1.933198542763494e-04 9.731883161586944e-03
4.943916692274498e-03 2.557556079564541e-04 1.217632523504118e-02
2.302046391306545e-03 1.646632678959450e-04 7.411898738891910e-03
-1.423389017708661e-03 5.876432002164113e-06 -3.766162934881499e-04
-1.423389017708671e-03 5.876432002163634e-06 -3.766162934881731e-04
-3.805501910938508e-03 -1.094795115204754e-04 -5.846206549589774e-03
-4.718611393702413e-03 -1.734770625926072e-04 -8.644679519459877e-03
-3.233251597336754e-03 -1.457308658207807e-04 -6.803064625008358e-03
1.580043346822102e-03 1.414443418845482e-05 1.647608711854913e-03
1.065073930743780e-02 3.465341928285508e-04 1.867631106922009e-02
        </DataArray>
        <DataArray type="Int32" Name="uid_0_pair_beam_id" format="ascii">
10
10
10
10
10
10
10
10
10
10
10
10
11
11
11
11
11
11
11
11
11
11
11
11
12
12
12
12
12
12
12
12
12
12
12
12
13
13
13
13
13
13
13
13
13
13
13
13
13
13
13
13
13
13
14
14
14
14
14
14
14
14
14
14
14
14
15
15
15
15
15
15
15
15
15
15
15
15
16
16
16
16
16
16
16
16
16
16
16
16
        </DataArray>
        <DataArray type="Int32" Name="uid_1_pair_solid_id" format="ascii">
0
0
0
0
0
0
1
1
1
1
1
1
2
2
2
2
2
2
1
1
1
1
1
1
2
2
2
2
2
2
3
3
3
3
3
3
3
3
3
3
3
3
4
4
4
4
4
4
5
5
5
5
5
5
5
5
5
5
5
5
6
6
6
6
6
6
6
6
6
6
6
6
7
7
7
7
7
7
7
7
7
7
7
7
8
8
8
8
8
8
        </DataArray>
  </PointData>
  <CellData>
        <DataArray type="Int32" Name="uid_0_pair_beam_id" format="ascii">
10
10
11
11
12
12
13
13
13
14
14
15
15
16
16
        </DataArray>
        <DataArray type="Int32" Name="uid_1_pair_solid_id" format="ascii">
0
1
2
1
2
3
3
4
5
5
6
6
7
7
8
        </DataArray>
      </CellData>

    </Piece>
  </UnstructuredGrid>
</VTKFile>
